 Gaussian 09, Revision D.01,
 Gaussian 09:  EM64L-G09RevD.01 24-Apr-2013

 -----------------------------
 # b3lyp/6-311g(d) 6d opt freq
 -----------------------------

 ---------------
 benzene-4-anuja
 ---------------
 Symbolic Z-matrix:
 Charge =  0 Multiplicity = 1

 SCF Done:  E(RB3LYP) =  -232.300443843     A.U. after   11 cycles
 SCF Done:  E(RB3LYP) =  -232.301213166     A.U. after   10 cycles
 SCF Done:  E(RB3LYP) =  -232.301192679     A.U. after    7 cycles
 Optimization completed.
    -- Stationary point found.
 Normal termination of Gaussian 09 at Thu Oct 22 12:14:05 2020.

 ---------------------------------------------------------------------
 #N Geom=AllCheck Guess=TCheck SCRF=Check GenChk RB3LYP/6-311G(d) Freq
 ---------------------------------------------------------------------

 Structure from the checkpoint file:  "/home/stanger/chk/benzene-4-anuja.chk"
 ---------------
 benzene-4-anuja
 ---------------
 Charge =  0 Multiplicity = 1

                         Standard orientation:
 ---------------------------------------------------------------------
 Center     Atomic      Atomic             Coordinates (Angstroms)
 Number     Number       Type             X           Y           Z
 ---------------------------------------------------------------------
      1          6           0       -1.303160    0.495580    0.000001
      2          6           0       -1.080719   -0.880710    0.000001
      3          6           0        0.222339   -1.376231    0.000005
      4          6           0        1.303181   -0.495525    0.000000
      5          6           0        1.080756    0.880665   -0.000002
      6          6           0       -0.222398    1.376222   -0.000001
      7          1           0       -2.317831    0.881436   -0.000005
      8          1           0       -1.922319   -1.566411   -0.000011
      9          1           0        0.395440   -2.447916   -0.000014
     10          1           0        2.317802   -0.881510   -0.000005
     11          1           0        1.922271    1.566470    0.000003
     12          1           0       -0.395363    2.447928    0.000006
 ---------------------------------------------------------------------

 SCF Done:  E(RB3LYP) =  -232.301192679     A.U. after    1 cycles

 The electronic state is 1-A.
 Alpha  occ. eigenvalues --  -10.17846 -10.17818 -10.17818 -10.17760 -10.17759
 Alpha  occ. eigenvalues --  -10.17731  -0.85619  -0.74807  -0.74804  -0.60517
 Alpha  occ. eigenvalues --   -0.60516  -0.52738  -0.46483  -0.44932  -0.42565
 Alpha  occ. eigenvalues --   -0.42561  -0.36885  -0.34837  -0.34835  -0.25543
 Alpha  occ. eigenvalues --   -0.25541
 Alpha virt. eigenvalues --   -0.00805  -0.00803   0.04199   0.07701   0.07702
 Alpha virt. eigenvalues --    0.11083   0.11083   0.13597   0.15077   0.26959
 Alpha virt. eigenvalues --    0.26962   0.28450   0.28450   0.30288   0.34901

 Mulliken charges:
               1
     1  C   -0.189501
     2  C   -0.189396
     3  C   -0.189557
     4  C   -0.189502
     5  C   -0.189397
     6  C   -0.189556
     7  H    0.189494
     8  H    0.189478
     9  H    0.189482
    10  H    0.189494
    11  H    0.189478
    12  H    0.189482
 Sum of Mulliken charges =   0.00000

 Dipole moment (field-independent basis, Debye):
    X=              0.0000    Y=              0.0000    Z=              0.0000  Tot=              0.0000
 Quadrupole moment (field-independent basis, Debye-Ang):
   XX=            -31.6994   YY=            -31.7017   ZZ=            -39.8587
   XY=             -0.0001   XZ=              0.0000   YZ=              0.0001

  Exact polarizability:  74.232  -0.001  74.226   0.000   0.000  28.360
 Approx polarizability: 122.159  -0.001 122.149   0.000   0.000  42.951

                      1                      2                      3
                      A                      A                      A
 Frequencies --    412.8560               413.3817               623.8056
 Red. masses --      2.9269                 2.9289                 6.0929
 Frc consts  --      0.2939                 0.2949                 1.3969
 IR Inten    --      0.0000                 0.0000                 0.0000

                      4                      5                      6
                      A                      A                      A
 Frequencies --    623.9353               684.8462               721.9403
 Red. masses --      6.0916                 1.0848                 3.7101
 Frc consts  --      1.3972                 0.2998                 1.1393
 IR Inten    --      0.0000               117.7239                 0.0000

                      7                      8                      9
                      A                      A                      A
 Frequencies --    856.0340               856.3883               960.2965
 Red. masses --      1.2478                 1.2478                 1.3620
 Frc consts  --      0.5387                 0.5392                 0.7400
 IR Inten    --      0.0000                 0.0000                 0.0000

                     10                     11                     12
                      A                      A                      A
 Frequencies --    960.3631              1002.6353              1012.9339
 Red. masses --      1.3627                 1.2406                 6.0430
 Frc consts  --      0.7405                 0.7348                 3.6531
 IR Inten    --      0.0001                 0.0000                 0.0000

                     13                     14                     15
                      A                      A                      A
 Frequencies --   1026.8220              1060.4020              1060.9879
 Red. masses --      6.5245                 1.7133                 1.7097
 Frc consts  --      4.0531                 1.1350                 1.1340
 IR Inten    --      0.0001                 5.1015                 5.1201

                     16                     17                     18
                      A                      A                      A
 Frequencies --   1178.2020              1200.5429              1200.7528
 Red. masses --      1.1173                 1.1408                 1.1414
 Frc consts  --      0.9138                 0.9688                 0.9696
 IR Inten    --      0.0000                 0.0000                 0.0000

                     19                     20                     21
                      A                      A                      A
 Frequencies --   1335.2764              1385.9115              1517.4390
 Red. masses --      5.5379                 1.2478                 1.9993
 Frc consts  --      5.8175                 1.4121                 2.7124
 IR Inten    --      0.0000                 0.0000                 8.8504

                     22                     23                     24
                      A                      A                      A
 Frequencies --   1517.9734              1640.0754              1640.2481
 Red. masses --      2.0040                 5.2232                 5.2331
 Frc consts  --      2.7207                 8.2777                 8.2952
 IR Inten    --      8.7894                 0.0000                 0.0000

                     25                     26                     27
                      A                      A                      A
 Frequencies --   3155.0110              3164.5177              3164.7164
 Red. masses --      1.0842                 1.0877                 1.0877
 Frc consts  --      6.3588                 6.4176                 6.4185
 IR Inten    --      0.0022                 0.0000                 0.0000

                     28                     29                     30
                      A                      A                      A
 Frequencies --   3180.7960              3181.0340              3191.9958
 Red. masses --      1.0947                 1.0947                 1.0988
 Frc consts  --      6.5255                 6.5264                 6.5962
 IR Inten    --     59.5905                59.5558                 0.0000

 - Thermochemistry -
 -------------------
 Temperature   298.150 Kelvin.  Pressure   1.00000 Atm.
 Atom     1 has atomic number  6 and mass  12.00000

 Molecular mass:    78.04695 amu.
 Principal axes and moments of inertia in atomic units:
                           1         2         3
     Eigenvalues --   316.23492 316.28464 632.51956
           X            0.99975   0.02222   0.00000
           Y           -0.02222   0.99975   0.00000
           Z            0.00000   0.00000   1.00000
 This molecule is an asymmetric top.
 Rotational symmetry number  1.
 Rotational temperatures (Kelvin)      0.27389     0.27385     0.13693
 Rotational constants (GHZ):           5.70696     5.70607     2.85326
 Zero-point vibrational energy     262772.4 (Joules/Mol)
                                   62.80412 (Kcal/Mol)
 Warning -- explicit consideration of   2 degrees of freedom as
           vibrations may cause significant error
 Vibrational temperatures:    594.01   594.76   897.52   897.70   985.34
          (Kelvin)           1038.71  1231.64  1232.15  1381.65  1381.75
                             1442.57  1457.38  1477.37  1525.68  1526.52
                             1695.17  1727.31  1727.61  1921.16  1994.02
                             2183.25  2184.02  2359.70  2359.95  4539.35
                             4553.03  4553.32  4576.45  4576.79  4592.56

 Zero-point correction=                           0.100085 (Hartree/Particle)
 Thermal correction to Energy=                    0.104488
 Thermal correction to Enthalpy=                  0.105433
 Thermal correction to Gibbs Free Energy=         0.072622
 Sum of electronic and zero-point Energies=           -232.201108
 Sum of electronic and thermal Energies=              -232.196704
 Sum of electronic and thermal Enthalpies=            -232.195760
 Sum of electronic and thermal Free Energies=         -232.228571

                     E (Thermal)             CV                S
                      KCal/Mol        Cal/Mol-Kelvin    Cal/Mol-Kelvin
 Total                   65.568             17.246             69.056
 Electronic               0.000              0.000              0.000
 Translational            0.889              2.981             38.979
 Rotational               0.889              2.981             25.651
 Vibrational             63.790             11.284              4.426
 Vibration     1          0.777              1.442              0.917
 Vibration     2          0.777              1.441              0.915

 Optimization completed.
    -- Stationary point found.
 Normal termination of Gaussian 09 at Thu Oct 22 12:14:29 2020.
