 Gaussian 09, Revision D.01,
 Gaussian 09:  EM64L-G09RevD.01 24-Apr-2013

 ----------------------------------------------------
 # B3LYP/6-311+G* NMR=GIAO POP=FULL SCF(MAXCYCLE=512)
 ----------------------------------------------------

 ----------------------------------------
 ----------------------------- # Center 1
 ----------------------------------------
 Symbolic Z-matrix:
 Charge =  0 Multiplicity = 1

                          Input orientation:
 ---------------------------------------------------------------------
 Center     Atomic      Atomic             Coordinates (Angstroms)
 Number     Number       Type             X           Y           Z
 ---------------------------------------------------------------------
      1          6           0        1.394020    0.000000    0.000000
      2          6           0       -0.697010    1.207260    0.000000
      3          6           0       -0.697010   -1.207260    0.000000
      4          6           0        0.697010    1.207260    0.000000
      5          6           0       -1.394020    0.000000    0.000000
      6          6           0        0.697010   -1.207260    0.000000
      7          1           0        2.479590    0.000000    0.000000
      8          1           0        1.239790    2.147390    0.000000
      9          1           0       -1.239790    2.147390    0.000000
     10          1           0       -2.479590    0.000000    0.000000
     11          1           0       -1.239790   -2.147390    0.000000
     12          1           0        1.239790   -2.147390    0.000000
     13          0           0        0.000000    0.000000    0.000000
     14          0           0        0.000000    0.000000    0.100000
     15          0           0        0.000000    0.000000    0.200000
     16          0           0        0.000000    0.000000    0.300000
     17          0           0        0.000000    0.000000    0.400000
     18          0           0        0.000000    0.000000    0.500000
     19          0           0        0.000000    0.000000    0.600000
     20          0           0        0.000000    0.000000    0.700000
     21          0           0        0.000000    0.000000    0.800000
     22          0           0        0.000000    0.000000    0.900000
     23          0           0        0.000000    0.000000    1.000000
     24          0           0        0.000000    0.000000    1.100000
     25          0           0        0.000000    0.000000    1.200000
     26          0           0        0.000000    0.000000    1.300000
     27          0           0        0.000000    0.000000    1.400000
     28          0           0        0.000000    0.000000    1.500000
     29          0           0        0.000000    0.000000    1.600000
     30          0           0        0.000000    0.000000    1.700000
     31          0           0        0.000000    0.000000    1.800000
     32          0           0        0.000000    0.000000    1.900000
     33          0           0        0.000000    0.000000    2.000000
     34          0           0        0.000000    0.000000    2.100000
     35          0           0        0.000000    0.000000    2.200000
     36          0           0        0.000000    0.000000    2.300000
     37          0           0        0.000000    0.000000    2.400000
     38          0           0        0.000000    0.000000    2.500000
     39          0           0        0.000000    0.000000    2.600000
     40          0           0        0.000000    0.000000    2.700000
     41          0           0        0.000000    0.000000    2.800000
     42          0           0        0.000000    0.000000    2.900000
     43          0           0        0.000000    0.000000    3.000000
     44          0           0        0.000000    0.000000    3.100000
     45          0           0        0.000000    0.000000    3.200000
     46          0           0        0.000000    0.000000    3.300000
     47          0           0        0.000000    0.000000    3.400000
     48          0           0        0.000000    0.000000    3.500000
     49          0           0        0.000000    0.000000    3.600000
     50          0           0        0.000000    0.000000    3.700000
     51          0           0        0.000000    0.000000    3.800000
     52          0           0        0.000000    0.000000    3.900000
 ---------------------------------------------------------------------

 SCF Done:  E(RB3LYP) =  -232.300702277     A.U. after    9 cycles

      1  C    Isotropic =    50.7311   Anisotropy =   184.0784

      2  C    Isotropic =    50.6678   Anisotropy =   184.0782

      3  C    Isotropic =    50.6678   Anisotropy =   184.0782

      4  C    Isotropic =    50.6678   Anisotropy =   184.0782

      5  C    Isotropic =    50.7311   Anisotropy =   184.0784

      6  C    Isotropic =    50.6678   Anisotropy =   184.0782

      7  H    Isotropic =    24.7997   Anisotropy =     4.8768

      8  H    Isotropic =    24.7893   Anisotropy =     4.8858

      9  H    Isotropic =    24.7893   Anisotropy =     4.8858

     10  H    Isotropic =    24.7997   Anisotropy =     4.8768

     11  H    Isotropic =    24.7893   Anisotropy =     4.8858

     12  H    Isotropic =    24.7893   Anisotropy =     4.8858

     13  Bq   Isotropic =     7.9083   Anisotropy =     9.2582

     14  Bq   Isotropic =     8.0163   Anisotropy =     9.7945

     15  Bq   Isotropic =     8.3199   Anisotropy =    11.3267

     16  Bq   Isotropic =     8.7630   Anisotropy =    13.6419

     17  Bq   Isotropic =     9.2678   Anisotropy =    16.4378

     18  Bq   Isotropic =     9.7520   Anisotropy =    19.3830

     19  Bq   Isotropic =    10.1442   Anisotropy =    22.1743

     20  Bq   Isotropic =    10.3943   Anisotropy =    24.5774

     21  Bq   Isotropic =    10.4764   Anisotropy =    26.4445

     22  Bq   Isotropic =    10.3871   Anisotropy =    27.7130

     23  Bq   Isotropic =    10.1407   Anisotropy =    28.3900

     24  Bq   Isotropic =     9.7624   Anisotropy =    28.5305

     25  Bq   Isotropic =     9.2828   Anisotropy =    28.2167

     26  Bq   Isotropic =     8.7334   Anisotropy =    27.5406

     27  Bq   Isotropic =     8.1431   Anisotropy =    26.5921

     28  Bq   Isotropic =     7.5368   Anisotropy =    25.4518

     29  Bq   Isotropic =     6.9343   Anisotropy =    24.1880

     30  Bq   Isotropic =     6.3505   Anisotropy =    22.8561

     31  Bq   Isotropic =     5.7959   Anisotropy =    21.4991

     32  Bq   Isotropic =     5.2771   Anisotropy =    20.1497

     33  Bq   Isotropic =     4.7975   Anisotropy =    18.8319

     34  Bq   Isotropic =     4.3584   Anisotropy =    17.5623

     35  Bq   Isotropic =     3.9592   Anisotropy =    16.3523

     36  Bq   Isotropic =     3.5981   Anisotropy =    15.2085

     37  Bq   Isotropic =     3.2728   Anisotropy =    14.1346

     38  Bq   Isotropic =     2.9803   Anisotropy =    13.1316

     39  Bq   Isotropic =     2.7177   Anisotropy =    12.1986

     40  Bq   Isotropic =     2.4820   Anisotropy =    11.3336

     41  Bq   Isotropic =     2.2705   Anisotropy =    10.5336

     42  Bq   Isotropic =     2.0806   Anisotropy =     9.7950

     43  Bq   Isotropic =     1.9099   Anisotropy =     9.1140

     44  Bq   Isotropic =     1.7563   Anisotropy =     8.4866

     45  Bq   Isotropic =     1.6179   Anisotropy =     7.9088

     46  Bq   Isotropic =     1.4929   Anisotropy =     7.3769

     47  Bq   Isotropic =     1.3799   Anisotropy =     6.8871

     48  Bq   Isotropic =     1.2775   Anisotropy =     6.4360

     49  Bq   Isotropic =     1.1847   Anisotropy =     6.0204

     50  Bq   Isotropic =     1.1003   Anisotropy =     5.6372

     51  Bq   Isotropic =     1.0235   Anisotropy =     5.2836

     52  Bq   Isotropic =     0.9534   Anisotropy =     4.9572

 Alpha  occ. eigenvalues --  -10.17871 -10.17848 -10.17848 -10.17793 -10.17793
 Alpha  occ. eigenvalues --  -10.17766  -0.86028  -0.75175  -0.75174  -0.60852
 Alpha  occ. eigenvalues --   -0.60852  -0.53057  -0.46750  -0.45307  -0.42886
 Alpha  occ. eigenvalues --   -0.42886  -0.37241  -0.35154  -0.35154  -0.25917
 Alpha  occ. eigenvalues --   -0.25917
 Alpha virt. eigenvalues --   -0.01587  -0.01586   0.00455   0.02352   0.02353
 Alpha virt. eigenvalues --    0.04558   0.04558   0.06335   0.07222   0.07844
 Alpha virt. eigenvalues --    0.08999   0.09023   0.09945   0.12753   0.14015

 Mulliken charges:
               1
     1  C   -0.217990
     2  C   -0.217474
     3  C   -0.217474
     4  C   -0.217474
     5  C   -0.217990
     6  C   -0.217474
     7  H    0.217650
     8  H    0.217644
     9  H    0.217644
    10  H    0.217650
    11  H    0.217644
    12  H    0.217644
    13  Bq   0.000000
    14  Bq   0.000000
    15  Bq   0.000000
    16  Bq   0.000000
    17  Bq   0.000000
    18  Bq   0.000000
    19  Bq   0.000000
    20  Bq   0.000000
    21  Bq   0.000000
    22  Bq   0.000000
    23  Bq   0.000000
    24  Bq   0.000000
    25  Bq   0.000000
    26  Bq   0.000000
    27  Bq   0.000000
    28  Bq   0.000000
    29  Bq   0.000000
    30  Bq   0.000000
    31  Bq   0.000000
    32  Bq   0.000000
    33  Bq   0.000000
    34  Bq   0.000000
    35  Bq   0.000000
    36  Bq   0.000000
    37  Bq   0.000000
    38  Bq   0.000000
    39  Bq   0.000000
    40  Bq   0.000000
    41  Bq   0.000000
    42  Bq   0.000000
    43  Bq   0.000000
    44  Bq   0.000000
    45  Bq   0.000000
    46  Bq   0.000000
    47  Bq   0.000000
    48  Bq   0.000000
    49  Bq   0.000000
    50  Bq   0.000000
    51  Bq   0.000000
    52  Bq   0.000000
 Sum of Mulliken charges =   0.00000

 Dipole moment (field-independent basis, Debye):
    X=              0.0000    Y=              0.0000    Z=              0.0000  Tot=              0.0000
 Quadrupole moment (field-independent basis, Debye-Ang):
   XX=            -32.0068   YY=            -32.0067   ZZ=            -40.5206
   XY=              0.0000   XZ=              0.0000   YZ=              0.0000

 Normal termination of Gaussian 09 at Mon May  5 18:17:59 2014.
