 Gaussian 09, Revision D.01,
 Gaussian 09:  EM64L-G09RevD.01 24-Apr-2013

 -------------------
 # B3LYP/6-311G* OPT
 -------------------

 -----------------------------
 Benzene Optimization By Aroma
 -----------------------------
 Symbolic Z-matrix:
 Charge =  0 Multiplicity = 1

 SCF Done:  E(RB3LYP) =  -232.297909452     A.U. after   10 cycles

 The electronic state is 1-AG.
 Alpha  occ. eigenvalues --  -10.17442 -10.17420 -10.17420 -10.17365 -10.17365
 Alpha  occ. eigenvalues --  -10.17339  -0.85631  -0.74818  -0.74818  -0.60528
 Alpha  occ. eigenvalues --   -0.60528  -0.52749  -0.46489  -0.44948  -0.42570
 Alpha  occ. eigenvalues --   -0.42570  -0.36899  -0.34844  -0.34844  -0.25551
 Alpha  occ. eigenvalues --   -0.25551
 Alpha virt. eigenvalues --   -0.00807  -0.00807   0.04229   0.07717   0.07717
 Alpha virt. eigenvalues --    0.11107   0.11107   0.13612   0.15083   0.27029
 Alpha virt. eigenvalues --    0.27029   0.28453   0.28454   0.30347   0.34885

 Mulliken charges:
               1
     1  C   -0.192162
     2  C   -0.192069
     3  C   -0.192069
     4  C   -0.192069
     5  C   -0.192162
     6  C   -0.192069
     7  H    0.192101
     8  H    0.192100
     9  H    0.192100
    10  H    0.192101
    11  H    0.192100
    12  H    0.192100
 Sum of Mulliken charges =   0.00000

 Dipole moment (field-independent basis, Debye):
    X=              0.0000    Y=              0.0000    Z=              0.0000  Tot=              0.0000
 Quadrupole moment (field-independent basis, Debye-Ang):
   XX=            -39.8799   YY=            -31.6982   ZZ=            -31.6989
   XY=              0.0000   XZ=              0.0000   YZ=              0.0000

 Optimization completed.
    -- Stationary point found.

                         Standard orientation:
 ---------------------------------------------------------------------
 Center     Atomic      Atomic             Coordinates (Angstroms)
 Number     Number       Type             X           Y           Z
 ---------------------------------------------------------------------
      1          6           0        0.000000    0.000000    1.394020
      2          6           0        0.000000    1.207260   -0.697010
      3          6           0        0.000000   -1.207260   -0.697010
      4          6           0        0.000000    1.207260    0.697010
      5          6           0        0.000000    0.000000   -1.394020
      6          6           0        0.000000   -1.207260    0.697010
      7          1           0        0.000000    0.000000    2.479590
      8          1           0        0.000000    2.147390    1.239790
      9          1           0        0.000000    2.147390   -1.239790
     10          1           0        0.000000    0.000000   -2.479590
     11          1           0        0.000000   -2.147390   -1.239790
     12          1           0        0.000000   -2.147390    1.239790
 ---------------------------------------------------------------------

 Normal termination of Gaussian 09 at Sat Feb  1 02:28:56 2014.
