 Gaussian 09, Revision D.01,
 Gaussian 09:  EM64L-G09RevD.01 24-Apr-2013

 ----------------------------------------------------------------------
 # B3LYP/6-311+G* SCF=MAXCYCLE=2000 NMR=GIAO INTEGRAL=(GRID=ULTRAFINE)
 CPHF=(GRID=FINE)
 ----------------------------------------------------------------------

 -------------------------------------------
 -------------------------------- # Center 1
 -------------------------------------------
 Symbolic Z-matrix:
 Charge =  0 Multiplicity = 1

                          Input orientation:
 ---------------------------------------------------------------------
 Center     Atomic      Atomic             Coordinates (Angstroms)
 Number     Number       Type             X           Y           Z
 ---------------------------------------------------------------------
      1          6           0       -1.207390    0.697150    0.000000
      2          6           0       -1.207390   -0.697000    0.000000
      3          6           0       -0.000090   -1.394080    0.000000
      4          6           0        1.207420   -0.697100    0.000000
      5          6           0        1.207420    0.696950    0.000000
      6          6           0        0.000030    1.394080    0.000000
      7          1           0        0.000280    2.479650    0.000000
      8          1           0        2.147580    1.239700    0.000000
      9          1           0        2.147460   -1.240030    0.000000
     10          1           0       -0.000200   -2.479650    0.000020
     11          1           0       -2.147620   -1.239630    0.000000
     12          1           0       -2.147500    1.239960    0.000000
     13          1           0       -1.282870    0.740740   -0.996200
     14          1           0       -1.282880   -0.740570   -0.996200
     15          1           0       -0.000090   -1.481230   -0.996190
     16          1           0        1.282900   -0.740680   -0.996200
     17          1           0        1.282910    0.740510   -0.996200
     18          1           0        0.000040    1.481230   -0.996200
     19          0           0        0.000000    0.000000    0.000000
     20          0           0        0.000000    0.000000    0.100000
     21          0           0        0.000000    0.000000    0.200000
     22          0           0        0.000000    0.000000    0.300000
     23          0           0        0.000000    0.000000    0.400000
     24          0           0        0.000000    0.000000    0.500000
     25          0           0        0.000000    0.000000    0.600000
     26          0           0        0.000000    0.000000    0.700000
     27          0           0        0.000000    0.000000    0.800000
     28          0           0        0.000000    0.000000    0.900000
     29          0           0        0.000000    0.000000    1.000000
     30          0           0        0.000000    0.000000    1.100000
     31          0           0        0.000000    0.000000    1.200000
     32          0           0        0.000000    0.000000    1.300000
     33          0           0        0.000000    0.000000    1.400000
     34          0           0        0.000000    0.000000    1.500000
     35          0           0        0.000000    0.000000    1.600000
     36          0           0        0.000000    0.000000    1.700000
     37          0           0        0.000000    0.000000    1.800000
     38          0           0        0.000000    0.000000    1.900000
     39          0           0        0.000000    0.000000    2.000000
     40          0           0        0.000000    0.000000    2.100000
     41          0           0        0.000000    0.000000    2.200000
     42          0           0        0.000000    0.000000    2.300000
     43          0           0        0.000000    0.000000    2.400000
     44          0           0        0.000000    0.000000    2.500000
     45          0           0        0.000000    0.000000    2.600000
     46          0           0        0.000000    0.000000    2.700000
     47          0           0        0.000000    0.000000    2.800000
     48          0           0        0.000000    0.000000    2.900000
     49          0           0        0.000000    0.000000    3.000000
     50          0           0        0.000000    0.000000    3.100000
     51          0           0        0.000000    0.000000    3.200000
     52          0           0        0.000000    0.000000    3.300000
     53          0           0        0.000000    0.000000    3.400000
     54          0           0        0.000000    0.000000    3.500000
     55          0           0        0.000000    0.000000    3.600000
     56          0           0        0.000000    0.000000    3.700000
     57          0           0        0.000000    0.000000    3.800000
     58          0           0        0.000000    0.000000    3.900000
 ---------------------------------------------------------------------

 SCF Done:  E(RB3LYP) =  -235.383521289     A.U. after   14 cycles

      1  C    Isotropic =   207.4251   Anisotropy =    33.5956

      2  C    Isotropic =   207.4262   Anisotropy =    33.5880

      3  C    Isotropic =   207.4271   Anisotropy =    33.5772

      4  C    Isotropic =   207.4245   Anisotropy =    33.5964

      5  C    Isotropic =   207.4259   Anisotropy =    33.5871

      6  C    Isotropic =   207.4268   Anisotropy =    33.5794

      7  H    Isotropic =    31.3522   Anisotropy =    10.3835

      8  H    Isotropic =    31.3516   Anisotropy =    10.3842

      9  H    Isotropic =    31.3517   Anisotropy =    10.3844

     10  H    Isotropic =    31.3524   Anisotropy =    10.3837

     11  H    Isotropic =    31.3516   Anisotropy =    10.3843

     12  H    Isotropic =    31.3517   Anisotropy =    10.3845

     13  H    Isotropic =    26.3643   Anisotropy =    11.0187

     14  H    Isotropic =    26.3637   Anisotropy =    11.0185

     15  H    Isotropic =    26.3647   Anisotropy =    11.0190

     16  H    Isotropic =    26.3643   Anisotropy =    11.0187

     17  H    Isotropic =    26.3635   Anisotropy =    11.0186

     18  H    Isotropic =    26.3643   Anisotropy =    11.0192

     19  Bq   Isotropic =    -2.4251   Anisotropy =    15.6122

     20  Bq   Isotropic =    -2.3183   Anisotropy =    15.6364

     21  Bq   Isotropic =    -2.3611   Anisotropy =    14.8492

     22  Bq   Isotropic =    -2.4851   Anisotropy =    13.3852

     23  Bq   Isotropic =    -2.6236   Anisotropy =    11.4380

     24  Bq   Isotropic =    -2.7250   Anisotropy =     9.2220

     25  Bq   Isotropic =    -2.7591   Anisotropy =     6.9375

     26  Bq   Isotropic =    -2.7168   Anisotropy =     4.7468

     27  Bq   Isotropic =    -2.6052   Anisotropy =     2.7632

     28  Bq   Isotropic =    -2.4407   Anisotropy =     1.0516

     29  Bq   Isotropic =    -2.2427   Anisotropy =     0.7303

     30  Bq   Isotropic =    -2.0295   Anisotropy =     2.9814

     31  Bq   Isotropic =    -1.8155   Anisotropy =     4.7021

     32  Bq   Isotropic =    -1.6107   Anisotropy =     5.9615

     33  Bq   Isotropic =    -1.4212   Anisotropy =     6.8346

     34  Bq   Isotropic =    -1.2500   Anisotropy =     7.3944

     35  Bq   Isotropic =    -1.0978   Anisotropy =     7.7066

     36  Bq   Isotropic =    -0.9640   Anisotropy =     7.8280

     37  Bq   Isotropic =    -0.8474   Anisotropy =     7.8057

     38  Bq   Isotropic =    -0.7463   Anisotropy =     7.6783

     39  Bq   Isotropic =    -0.6590   Anisotropy =     7.4762

     40  Bq   Isotropic =    -0.5838   Anisotropy =     7.2231

     41  Bq   Isotropic =    -0.5192   Anisotropy =     6.9376

     42  Bq   Isotropic =    -0.4637   Anisotropy =     6.6333

     43  Bq   Isotropic =    -0.4161   Anisotropy =     6.3206

     44  Bq   Isotropic =    -0.3752   Anisotropy =     6.0070

     45  Bq   Isotropic =    -0.3400   Anisotropy =     5.6978

     46  Bq   Isotropic =    -0.3096   Anisotropy =     5.3968

     47  Bq   Isotropic =    -0.2833   Anisotropy =     5.1064

     48  Bq   Isotropic =    -0.2604   Anisotropy =     4.8281

     49  Bq   Isotropic =    -0.2404   Anisotropy =     4.5630

     50  Bq   Isotropic =    -0.2227   Anisotropy =     4.3113

     51  Bq   Isotropic =    -0.2071   Anisotropy =     4.0731

     52  Bq   Isotropic =    -0.1932   Anisotropy =     3.8482

     53  Bq   Isotropic =    -0.1807   Anisotropy =     3.6363

     54  Bq   Isotropic =    -0.1695   Anisotropy =     3.4369

     55  Bq   Isotropic =    -0.1593   Anisotropy =     3.2494

     56  Bq   Isotropic =    -0.1500   Anisotropy =     3.0733

     57  Bq   Isotropic =    -0.1415   Anisotropy =     2.9079

     58  Bq   Isotropic =    -0.1336   Anisotropy =     2.7527

 Alpha  occ. eigenvalues --  -10.13119 -10.13100 -10.13100 -10.13047 -10.13047
 Alpha  occ. eigenvalues --  -10.13021  -0.92702  -0.82048  -0.82045  -0.65578
 Alpha  occ. eigenvalues --   -0.65576  -0.55232  -0.50479  -0.50413  -0.44757
 Alpha  occ. eigenvalues --   -0.42966  -0.42964  -0.42240  -0.42237  -0.34333
 Alpha  occ. eigenvalues --   -0.34331  -0.26400  -0.26398  -0.15374
 Alpha virt. eigenvalues --   -0.02989   0.01625   0.01861   0.01861   0.04398
 Alpha virt. eigenvalues --    0.04398   0.05111   0.05971   0.05972   0.07904
 Alpha virt. eigenvalues --    0.10173   0.10419   0.10420   0.11250   0.11251

 Mulliken charges:
               1
     1  C   -0.544563
     2  C   -0.544541
     3  C   -0.544609
     4  C   -0.544568
     5  C   -0.544540
     6  C   -0.544607
     7  H    0.255245
     8  H    0.255244
     9  H    0.255247
    10  H    0.255248
    11  H    0.255244
    12  H    0.255248
    13  H    0.289323
    14  H    0.289325
    15  H    0.289331
    16  H    0.289321
    17  H    0.289325
    18  H    0.289328
    19  Bq   0.000000
    20  Bq   0.000000
    21  Bq   0.000000
    22  Bq   0.000000
    23  Bq   0.000000
    24  Bq   0.000000
    25  Bq   0.000000
    26  Bq   0.000000
    27  Bq   0.000000
    28  Bq   0.000000
    29  Bq   0.000000
    30  Bq   0.000000
    31  Bq   0.000000
    32  Bq   0.000000
    33  Bq   0.000000
    34  Bq   0.000000
    35  Bq   0.000000
    36  Bq   0.000000
    37  Bq   0.000000
    38  Bq   0.000000
    39  Bq   0.000000
    40  Bq   0.000000
    41  Bq   0.000000
    42  Bq   0.000000
    43  Bq   0.000000
    44  Bq   0.000000
    45  Bq   0.000000
    46  Bq   0.000000
    47  Bq   0.000000
    48  Bq   0.000000
    49  Bq   0.000000
    50  Bq   0.000000
    51  Bq   0.000000
    52  Bq   0.000000
    53  Bq   0.000000
    54  Bq   0.000000
    55  Bq   0.000000
    56  Bq   0.000000
    57  Bq   0.000000
    58  Bq   0.000000
 Sum of Mulliken charges =   0.00000

 Dipole moment (field-independent basis, Debye):
    X=              0.0000    Y=              0.0000    Z=             -3.0741  Tot=              3.0741
 Quadrupole moment (field-independent basis, Debye-Ang):
   XX=            -40.8704   YY=            -40.8712   ZZ=            -39.9866
   XY=              0.0001   XZ=              0.0000   YZ=              0.0000

 Normal termination of Gaussian 09 at Thu Oct 22 12:23:28 2020.
