 Gaussian 09, Revision D.01,
 Gaussian 09:  EM64L-G09RevD.01 24-Apr-2013

 ----------------------------------------------------------------------
 # B3LYP/6-311+G* SCF=MAXCYCLE=2000 NMR=GIAO INTEGRAL=(GRID=ULTRAFINE)
 CPHF=(GRID=FINE)
 ----------------------------------------------------------------------

 --------------------------
 --------------- # Center 1
 --------------------------
 Symbolic Z-matrix:
 Charge =  0 Multiplicity = 1

                          Input orientation:
 ---------------------------------------------------------------------
 Center     Atomic      Atomic             Coordinates (Angstroms)
 Number     Number       Type             X           Y           Z
 ---------------------------------------------------------------------
      1          6           0       -1.303160    0.495580    0.000000
      2          6           0       -1.080720   -0.880710    0.000000
      3          6           0        0.222340   -1.376230    0.000000
      4          6           0        1.303180   -0.495530    0.000000
      5          6           0        1.080760    0.880660    0.000000
      6          6           0       -0.222400    1.376220    0.000000
      7          1           0       -2.317830    0.881440   -0.000010
      8          1           0       -1.922320   -1.566410   -0.000010
      9          1           0        0.395440   -2.447920   -0.000010
     10          1           0        2.317800   -0.881510   -0.000010
     11          1           0        1.922270    1.566470    0.000000
     12          1           0       -0.395360    2.447930    0.000010
     13          0           0        0.000000    0.000000    0.000000
     14          0           0        0.000000    0.000000    0.100000
     15          0           0        0.000000    0.000000    0.200000
     16          0           0        0.000000    0.000000    0.300000
     17          0           0        0.000000    0.000000    0.400000
     18          0           0        0.000000    0.000000    0.500000
     19          0           0        0.000000    0.000000    0.600000
     20          0           0        0.000000    0.000000    0.700000
     21          0           0        0.000000    0.000000    0.800000
     22          0           0        0.000000    0.000000    0.900000
     23          0           0        0.000000    0.000000    1.000000
     24          0           0        0.000000    0.000000    1.100000
     25          0           0        0.000000    0.000000    1.200000
     26          0           0        0.000000    0.000000    1.300000
     27          0           0        0.000000    0.000000    1.400000
     28          0           0        0.000000    0.000000    1.500000
     29          0           0        0.000000    0.000000    1.600000
     30          0           0        0.000000    0.000000    1.700000
     31          0           0        0.000000    0.000000    1.800000
     32          0           0        0.000000    0.000000    1.900000
     33          0           0        0.000000    0.000000    2.000000
     34          0           0        0.000000    0.000000    2.100000
     35          0           0        0.000000    0.000000    2.200000
     36          0           0        0.000000    0.000000    2.300000
     37          0           0        0.000000    0.000000    2.400000
     38          0           0        0.000000    0.000000    2.500000
     39          0           0        0.000000    0.000000    2.600000
     40          0           0        0.000000    0.000000    2.700000
     41          0           0        0.000000    0.000000    2.800000
     42          0           0        0.000000    0.000000    2.900000
     43          0           0        0.000000    0.000000    3.000000
     44          0           0        0.000000    0.000000    3.100000
     45          0           0        0.000000    0.000000    3.200000
     46          0           0        0.000000    0.000000    3.300000
     47          0           0        0.000000    0.000000    3.400000
     48          0           0        0.000000    0.000000    3.500000
     49          0           0        0.000000    0.000000    3.600000
     50          0           0        0.000000    0.000000    3.700000
     51          0           0        0.000000    0.000000    3.800000
     52          0           0        0.000000    0.000000    3.900000
 ---------------------------------------------------------------------

 SCF Done:  E(RB3LYP) =  -232.300696851     A.U. after   10 cycles

      1  C    Isotropic =    50.5583   Anisotropy =   184.2229

      2  C    Isotropic =    50.5582   Anisotropy =   184.2299

      3  C    Isotropic =    50.5615   Anisotropy =   184.2179

      4  C    Isotropic =    50.5588   Anisotropy =   184.2231

      5  C    Isotropic =    50.5571   Anisotropy =   184.2309

      6  C    Isotropic =    50.5603   Anisotropy =   184.2192

      7  H    Isotropic =    24.7752   Anisotropy =     4.8712

      8  H    Isotropic =    24.7738   Anisotropy =     4.8731

      9  H    Isotropic =    24.7761   Anisotropy =     4.8710

     10  H    Isotropic =    24.7752   Anisotropy =     4.8712

     11  H    Isotropic =    24.7737   Anisotropy =     4.8731

     12  H    Isotropic =    24.7761   Anisotropy =     4.8711

     13  Bq   Isotropic =     7.9162   Anisotropy =     9.2466

     14  Bq   Isotropic =     8.0236   Anisotropy =     9.7839

     15  Bq   Isotropic =     8.3255   Anisotropy =    11.3187

     16  Bq   Isotropic =     8.7662   Anisotropy =    13.6378

     17  Bq   Isotropic =     9.2683   Anisotropy =    16.4377

     18  Bq   Isotropic =     9.7504   Anisotropy =    19.3862

     19  Bq   Isotropic =    10.1415   Anisotropy =    22.1796

     20  Bq   Isotropic =    10.3917   Anisotropy =    24.5826

     21  Bq   Isotropic =    10.4753   Anisotropy =    26.4476

     22  Bq   Isotropic =    10.3890   Anisotropy =    27.7119

     23  Bq   Isotropic =    10.1466   Anisotropy =    28.3828

     24  Bq   Isotropic =     9.7731   Anisotropy =    28.5159

     25  Bq   Isotropic =     9.2989   Anisotropy =    28.1939

     26  Bq   Isotropic =     8.7550   Anisotropy =    27.5092

     27  Bq   Isotropic =     8.1701   Anisotropy =    26.5522

     28  Bq   Isotropic =     7.5688   Anisotropy =    25.4040

     29  Bq   Isotropic =     6.9708   Anisotropy =    24.1331

     30  Bq   Isotropic =     6.3908   Anisotropy =    22.7951

     31  Bq   Isotropic =     5.8392   Anisotropy =    21.4334

     32  Bq   Isotropic =     5.3225   Anisotropy =    20.0806

     33  Bq   Isotropic =     4.8443   Anisotropy =    18.7606

     34  Bq   Isotropic =     4.4057   Anisotropy =    17.4902

     35  Bq   Isotropic =     4.0063   Anisotropy =    16.2803

     36  Bq   Isotropic =     3.6444   Anisotropy =    15.1378

     37  Bq   Isotropic =     3.3177   Anisotropy =    14.0659

     38  Bq   Isotropic =     3.0234   Anisotropy =    13.0656

     39  Bq   Isotropic =     2.7588   Anisotropy =    12.1357

     40  Bq   Isotropic =     2.5210   Anisotropy =    11.2741

     41  Bq   Isotropic =     2.3072   Anisotropy =    10.4775

     42  Bq   Isotropic =     2.1150   Anisotropy =     9.7425

     43  Bq   Isotropic =     1.9421   Anisotropy =     9.0650

     44  Bq   Isotropic =     1.7862   Anisotropy =     8.4410

     45  Bq   Isotropic =     1.6457   Anisotropy =     7.8665

     46  Bq   Isotropic =     1.5187   Anisotropy =     7.3377

     47  Bq   Isotropic =     1.4038   Anisotropy =     6.8508

     48  Bq   Isotropic =     1.2997   Anisotropy =     6.4023

     49  Bq   Isotropic =     1.2053   Anisotropy =     5.9892

     50  Bq   Isotropic =     1.1194   Anisotropy =     5.6082

     51  Bq   Isotropic =     1.0412   Anisotropy =     5.2568

     52  Bq   Isotropic =     0.9699   Anisotropy =     4.9322

 Alpha  occ. eigenvalues --  -10.17874 -10.17852 -10.17851 -10.17796 -10.17796
 Alpha  occ. eigenvalues --  -10.17769  -0.86023  -0.75173  -0.75170  -0.60852
 Alpha  occ. eigenvalues --   -0.60850  -0.53055  -0.46753  -0.45304  -0.42887
 Alpha  occ. eigenvalues --   -0.42884  -0.37237  -0.35156  -0.35153  -0.25917
 Alpha  occ. eigenvalues --   -0.25915
 Alpha virt. eigenvalues --   -0.01590  -0.01588   0.00455   0.02352   0.02352
 Alpha virt. eigenvalues --    0.04557   0.04558   0.06333   0.07209   0.07843
 Alpha virt. eigenvalues --    0.09013   0.09013   0.09945   0.12749   0.14019

 Mulliken charges:
               1
     1  C   -0.217683
     2  C   -0.217630
     3  C   -0.217674
     4  C   -0.217686
     5  C   -0.217624
     6  C   -0.217673
     7  H    0.217671
     8  H    0.217658
     9  H    0.217655
    10  H    0.217672
    11  H    0.217658
    12  H    0.217656
    13  Bq   0.000000
    14  Bq   0.000000
    15  Bq   0.000000
    16  Bq   0.000000
    17  Bq   0.000000
    18  Bq   0.000000
    19  Bq   0.000000
    20  Bq   0.000000
    21  Bq   0.000000
    22  Bq   0.000000
    23  Bq   0.000000
    24  Bq   0.000000
    25  Bq   0.000000
    26  Bq   0.000000
    27  Bq   0.000000
    28  Bq   0.000000
    29  Bq   0.000000
    30  Bq   0.000000
    31  Bq   0.000000
    32  Bq   0.000000
    33  Bq   0.000000
    34  Bq   0.000000
    35  Bq   0.000000
    36  Bq   0.000000
    37  Bq   0.000000
    38  Bq   0.000000
    39  Bq   0.000000
    40  Bq   0.000000
    41  Bq   0.000000
    42  Bq   0.000000
    43  Bq   0.000000
    44  Bq   0.000000
    45  Bq   0.000000
    46  Bq   0.000000
    47  Bq   0.000000
    48  Bq   0.000000
    49  Bq   0.000000
    50  Bq   0.000000
    51  Bq   0.000000
    52  Bq   0.000000
 Sum of Mulliken charges =   0.00000

 Dipole moment (field-independent basis, Debye):
    X=              0.0000    Y=              0.0000    Z=              0.0000  Tot=              0.0000
 Quadrupole moment (field-independent basis, Debye-Ang):
   XX=            -32.0049   YY=            -32.0072   ZZ=            -40.5227
   XY=              0.0000   XZ=              0.0000   YZ=              0.0001

 Normal termination of Gaussian 09 at Thu Oct 22 12:22:52 2020.
