 Gaussian 09, Revision A.02,
 Gaussian 09:  IA32W-G09RevA.02 11-Jun-2009

 ---------------------------------------------------------------
 # HF/STO-3G NMR=GIAO INTEGRAL=(GRID=ULTRAFINE) CPHF=(GRID=FINE)
 ---------------------------------------------------------------

 -------------------------------------------
 -------------------------------- # Center 1
 -------------------------------------------
 Symbolic Z-matrix:
 Charge =  0 Multiplicity = 3

                          Input orientation:
 ---------------------------------------------------------------------
 Center     Atomic      Atomic             Coordinates (Angstroms)
 Number     Number       Type             X           Y           Z
 ---------------------------------------------------------------------
      1          6           0        0.000000    0.000000    0.000000
      2          6           0        0.000000    0.000000    1.394150
      3          6           0        1.207300    0.000000    2.091230
      4          6           0        2.414820    0.000000    1.394260
      5          6           0        2.414820    0.000000    0.000210
      6          6           0        1.207430    0.000000   -0.696920
      7          1           0        1.207670    0.000000   -1.782490
      8          1           0        3.354980    0.000000   -0.542540
      9          1           0        3.354860    0.000000    1.937180
     10          1           0        1.207200    0.000020    3.176800
     11          1           0       -0.940220    0.000000    1.936790
     12          1           0       -0.940110    0.000000   -0.542810
     13          0           0        1.207390    0.000000    0.697150
     14          0           0        1.207400   -1.000000    0.697150
     15          1           0       -0.075480   -0.996200   -0.043580
     16          1           0       -0.075480   -0.996200    1.437720
     17          1           0        1.207300   -0.996200    2.178390
     18          1           0        2.490300   -0.996200    1.437830
     19          1           0        2.490300   -0.996200   -0.043360
     20          1           0        1.207430   -0.996200   -0.784080
     21          0           0        6.941120   -4.999980   -3.441030
     22          0           0        5.794380   -3.999980   -2.613390
     23          0           0       -2.232840    2.999990    3.180060
     24          0           0        5.000000    5.000000    5.000000
     25          0           0        4.000000    4.000000    4.000000
     26          0           0       -3.000000   -3.000000   -3.000000
 ---------------------------------------------------------------------

 SCF Done:  E(UHF) =  -230.354439408     A.U. after   16 cycles

  1  C    Isotropic =   198.5842   Anisotropy =    54.4072

  2  C    Isotropic =   198.5813   Anisotropy =    54.4087

  3  C    Isotropic =   198.5766   Anisotropy =    54.4109

  4  C    Isotropic =   198.5796   Anisotropy =    54.4138

  5  C    Isotropic =   198.5830   Anisotropy =    54.4054

  6  C    Isotropic =   198.5837   Anisotropy =    54.4003

  7  H    Isotropic =    30.5002   Anisotropy =    13.1927

  8  H    Isotropic =    30.4998   Anisotropy =    13.1925

  9  H    Isotropic =    30.4995   Anisotropy =    13.1907

 10  H    Isotropic =    30.5001   Anisotropy =    13.1920

 11  H    Isotropic =    30.4998   Anisotropy =    13.1923

 12  H    Isotropic =    30.4996   Anisotropy =    13.1912

 13  Bq   Isotropic =     9.1824   Anisotropy =    15.8838

 14  Bq   Isotropic =     6.7216   Anisotropy =    14.5011

 15  H    Isotropic =    34.7139   Anisotropy =    17.8580

 16  H    Isotropic =    34.7138   Anisotropy =    17.8584

 17  H    Isotropic =    34.7146   Anisotropy =    17.8571

 18  H    Isotropic =    34.7140   Anisotropy =    17.8579

 19  H    Isotropic =    34.7137   Anisotropy =    17.8584

 20  H    Isotropic =    34.7143   Anisotropy =    17.8573

 21  Bq   Isotropic =    -0.0440   Anisotropy =     0.6528

 22  Bq   Isotropic =    -0.0697   Anisotropy =     1.2534

 23  Bq   Isotropic =     0.1433   Anisotropy =     2.3495

 24  Bq   Isotropic =     0.0762   Anisotropy =     0.7218

 25  Bq   Isotropic =     0.1459   Anisotropy =     1.5548

 26  Bq   Isotropic =    -0.0894   Anisotropy =     1.5946

 Alpha  occ. eigenvalues --  -11.02419 -11.02419 -11.02413 -11.02400 -11.02400
 Alpha  occ. eigenvalues --  -11.02391  -1.20184  -1.07388  -1.07384  -0.86818
 Alpha  occ. eigenvalues --   -0.86816  -0.71832  -0.68632  -0.67845  -0.58936
 Alpha  occ. eigenvalues --   -0.58933  -0.57574  -0.55076  -0.55071  -0.45429
 Alpha  occ. eigenvalues --   -0.45426  -0.38649  -0.38647  -0.26511   0.17787
 Alpha virt. eigenvalues --    0.50418   0.50422   0.60378   0.60595   0.60600
 Alpha virt. eigenvalues --    0.64771   0.64774   0.64941   0.85889   0.85893
 Alpha virt. eigenvalues --    0.93345   0.93351   1.05329   1.05334   1.06141

  Beta  occ. eigenvalues --  -11.02104 -11.02104 -11.02095 -11.02083 -11.02083
  Beta  occ. eigenvalues --  -11.02068  -1.17157  -1.04431  -1.04428  -0.83926
  Beta  occ. eigenvalues --   -0.83924  -0.68850  -0.64584  -0.62903  -0.57192
  Beta  occ. eigenvalues --   -0.53514  -0.53510  -0.52432  -0.52429  -0.43529
  Beta  occ. eigenvalues --   -0.43526  -0.27910  -0.27907
  Beta virt. eigenvalues --    0.05034   0.47054   0.60563   0.60566   0.63563
  Beta virt. eigenvalues --    0.64419   0.64425   0.66543   0.66546   0.68918
  Beta virt. eigenvalues --    0.87548   0.87551   0.95149   0.95155   1.07269

 Mulliken atomic charges:
              1
     1  C   -0.153619
     2  C   -0.153618
     3  C   -0.153607
     4  C   -0.153619
     5  C   -0.153617
     6  C   -0.153610
     7  H    0.073718
     8  H    0.073716
     9  H    0.073729
    10  H    0.073716
    11  H    0.073716
    12  H    0.073728
    13  Bq   0.000000
    14  Bq   0.000000
    15  H    0.079896
    16  H    0.079894
    17  H    0.079893
    18  H    0.079895
    19  H    0.079894
    20  H    0.079895
    21  Bq   0.000000
    22  Bq   0.000000
    23  Bq   0.000000
    24  Bq   0.000000
    25  Bq   0.000000
    26  Bq   0.000000
 Sum of Mulliken atomic charges =   0.00000

 Dipole moment (field-independent basis, Debye):
    X=              0.0000    Y=             -2.0403    Z=              0.0000  Tot=              2.0403
 Quadrupole moment (field-independent basis, Debye-Ang):
   XX=            -36.8332   YY=            -39.1238   ZZ=            -36.8341
   XY=             -2.4635   XZ=              0.0002   YZ=             -1.4224

 Normal termination of Gaussian 09 at Mon Dec 21 10:53:29 2020.
