 Gaussian 09, Revision D.01,
 Gaussian 09:  EM64L-G09RevD.01 24-Apr-2013

 ----------------------------------------------------
 # B3LYP/6-311+G* NMR=GIAO POP=FULL SCF(MAXCYCLE=512)
 ----------------------------------------------------

 ---------------------------------------------------------
 ---------------------------------------------- # Center 1
 ---------------------------------------------------------
 Symbolic Z-matrix:
 Charge =  0 Multiplicity = 1

                          Input orientation:
 ---------------------------------------------------------------------
 Center     Atomic      Atomic             Coordinates (Angstroms)
 Number     Number       Type             X           Y           Z
 ---------------------------------------------------------------------
      1          6           0       -1.207260    0.697010    0.000000
      2          6           0       -1.207260   -0.697010    0.000000
      3          6           0        0.000000   -1.394020    0.000000
      4          6           0        1.207260   -0.697010    0.000000
      5          6           0        1.207260    0.697010    0.000000
      6          6           0        0.000000    1.394020    0.000000
      7          1           0        0.000000    2.479590    0.000000
      8          1           0        2.147380    1.239800    0.000000
      9          1           0        2.147390   -1.239790    0.000000
     10          1           0        0.000000   -2.479590    0.000000
     11          1           0       -2.147380   -1.239800    0.000000
     12          1           0       -2.147390    1.239790    0.000000
     13          1           0       -1.282740    0.740590   -0.996200
     14          1           0        0.000000   -1.481180   -0.996190
     15          1           0        1.282740    0.740590   -0.996200
     16          1           0       -1.282740   -0.740590   -0.996200
     17          1           0        1.282740   -0.740590   -0.996200
     18          1           0        0.000000    1.481180   -0.996200
     19          0           0        0.000000    0.000000    0.000000
     20          0           0        0.000000    0.000000    0.100000
     21          0           0        0.000000    0.000000    0.200000
     22          0           0        0.000000    0.000000    0.300000
     23          0           0        0.000000    0.000000    0.400000
     24          0           0        0.000000    0.000000    0.500000
     25          0           0        0.000000    0.000000    0.600000
     26          0           0        0.000000    0.000000    0.700000
     27          0           0        0.000000    0.000000    0.800000
     28          0           0        0.000000    0.000000    0.900000
     29          0           0        0.000000    0.000000    1.000000
     30          0           0        0.000000    0.000000    1.100000
     31          0           0        0.000000    0.000000    1.200000
     32          0           0        0.000000    0.000000    1.300000
     33          0           0        0.000000    0.000000    1.400000
     34          0           0        0.000000    0.000000    1.500000
     35          0           0        0.000000    0.000000    1.600000
     36          0           0        0.000000    0.000000    1.700000
     37          0           0        0.000000    0.000000    1.800000
     38          0           0        0.000000    0.000000    1.900000
     39          0           0        0.000000    0.000000    2.000000
     40          0           0        0.000000    0.000000    2.100000
     41          0           0        0.000000    0.000000    2.200000
     42          0           0        0.000000    0.000000    2.300000
     43          0           0        0.000000    0.000000    2.400000
     44          0           0        0.000000    0.000000    2.500000
     45          0           0        0.000000    0.000000    2.600000
     46          0           0        0.000000    0.000000    2.700000
     47          0           0        0.000000    0.000000    2.800000
     48          0           0        0.000000    0.000000    2.900000
     49          0           0        0.000000    0.000000    3.000000
     50          0           0        0.000000    0.000000    3.100000
     51          0           0        0.000000    0.000000    3.200000
     52          0           0        0.000000    0.000000    3.300000
     53          0           0        0.000000    0.000000    3.400000
     54          0           0        0.000000    0.000000    3.500000
     55          0           0        0.000000    0.000000    3.600000
     56          0           0        0.000000    0.000000    3.700000
     57          0           0        0.000000    0.000000    3.800000
     58          0           0        0.000000    0.000000    3.900000
 ---------------------------------------------------------------------

 SCF Done:  E(RB3LYP) =  -235.383205725     A.U. after   12 cycles

      1  C    Isotropic =   207.4252   Anisotropy =    33.5688

      2  C    Isotropic =   207.4252   Anisotropy =    33.5698

      3  C    Isotropic =   207.4088   Anisotropy =    33.4551

      4  C    Isotropic =   207.4251   Anisotropy =    33.5695

      5  C    Isotropic =   207.4253   Anisotropy =    33.5691

      6  C    Isotropic =   207.4079   Anisotropy =    33.4556

      7  H    Isotropic =    31.3536   Anisotropy =    10.3637

      8  H    Isotropic =    31.3625   Anisotropy =    10.3727

      9  H    Isotropic =    31.3624   Anisotropy =    10.3727

     10  H    Isotropic =    31.3537   Anisotropy =    10.3639

     11  H    Isotropic =    31.3624   Anisotropy =    10.3727

     12  H    Isotropic =    31.3624   Anisotropy =    10.3727

     13  H    Isotropic =    26.3542   Anisotropy =    11.0128

     14  H    Isotropic =    26.3579   Anisotropy =    11.0233

     15  H    Isotropic =    26.3542   Anisotropy =    11.0128

     16  H    Isotropic =    26.3543   Anisotropy =    11.0127

     17  H    Isotropic =    26.3543   Anisotropy =    11.0127

     18  H    Isotropic =    26.3575   Anisotropy =    11.0235

     19  Bq   Isotropic =    -2.4125   Anisotropy =    15.5527

     20  Bq   Isotropic =    -2.3038   Anisotropy =    15.5836

     21  Bq   Isotropic =    -2.3443   Anisotropy =    14.8026

     22  Bq   Isotropic =    -2.4661   Anisotropy =    13.3445

     23  Bq   Isotropic =    -2.6027   Anisotropy =    11.4027

     24  Bq   Isotropic =    -2.7026   Anisotropy =     9.1917

     25  Bq   Isotropic =    -2.7357   Anisotropy =     6.9116

     26  Bq   Isotropic =    -2.6930   Anisotropy =     4.7248

     27  Bq   Isotropic =    -2.5816   Anisotropy =     2.7445

     28  Bq   Isotropic =    -2.4179   Anisotropy =     1.0354

     29  Bq   Isotropic =    -2.2214   Anisotropy =     0.7766

     30  Bq   Isotropic =    -2.0101   Anisotropy =     3.0243

     31  Bq   Isotropic =    -1.7983   Anisotropy =     4.7428

     32  Bq   Isotropic =    -1.5959   Anisotropy =     6.0009

     33  Bq   Isotropic =    -1.4089   Anisotropy =     6.8732

     34  Bq   Isotropic =    -1.2401   Anisotropy =     7.4325

     35  Bq   Isotropic =    -1.0901   Anisotropy =     7.7444

     36  Bq   Isotropic =    -0.9583   Anisotropy =     7.8653

     37  Bq   Isotropic =    -0.8434   Anisotropy =     7.8424

     38  Bq   Isotropic =    -0.7438   Anisotropy =     7.7141

     39  Bq   Isotropic =    -0.6577   Anisotropy =     7.5107

     40  Bq   Isotropic =    -0.5834   Anisotropy =     7.2562

     41  Bq   Isotropic =    -0.5194   Anisotropy =     6.9690

     42  Bq   Isotropic =    -0.4644   Anisotropy =     6.6628

     43  Bq   Isotropic =    -0.4170   Anisotropy =     6.3481

     44  Bq   Isotropic =    -0.3763   Anisotropy =     6.0324

     45  Bq   Isotropic =    -0.3411   Anisotropy =     5.7212

     46  Bq   Isotropic =    -0.3107   Anisotropy =     5.4181

     47  Bq   Isotropic =    -0.2844   Anisotropy =     5.1258

     48  Bq   Isotropic =    -0.2614   Anisotropy =     4.8458

     49  Bq   Isotropic =    -0.2412   Anisotropy =     4.5789

     50  Bq   Isotropic =    -0.2235   Anisotropy =     4.3257

     51  Bq   Isotropic =    -0.2078   Anisotropy =     4.0861

     52  Bq   Isotropic =    -0.1938   Anisotropy =     3.8600

     53  Bq   Isotropic =    -0.1812   Anisotropy =     3.6470

     54  Bq   Isotropic =    -0.1699   Anisotropy =     3.4465

     55  Bq   Isotropic =    -0.1597   Anisotropy =     3.2581

     56  Bq   Isotropic =    -0.1503   Anisotropy =     3.0812

     57  Bq   Isotropic =    -0.1418   Anisotropy =     2.9151

     58  Bq   Isotropic =    -0.1339   Anisotropy =     2.7593

 Alpha  occ. eigenvalues --  -10.13117 -10.13098 -10.13097 -10.13045 -10.13045
 Alpha  occ. eigenvalues --  -10.13019  -0.92706  -0.82051  -0.82051  -0.65578
 Alpha  occ. eigenvalues --   -0.65578  -0.55235  -0.50481  -0.50410  -0.44760
 Alpha  occ. eigenvalues --   -0.42968  -0.42967  -0.42241  -0.42241  -0.34332
 Alpha  occ. eigenvalues --   -0.34332  -0.26397  -0.26397  -0.15369
 Alpha virt. eigenvalues --   -0.02990   0.01626   0.01860   0.01861   0.04399
 Alpha virt. eigenvalues --    0.04400   0.05102   0.05970   0.05972   0.07905
 Alpha virt. eigenvalues --    0.10173   0.10414   0.10422   0.11250   0.11251

 Mulliken charges:
               1
     1  C   -0.544693
     2  C   -0.544716
     3  C   -0.544107
     4  C   -0.544718
     5  C   -0.544691
     6  C   -0.544135
     7  H    0.255218
     8  H    0.255244
     9  H    0.255243
    10  H    0.255217
    11  H    0.255245
    12  H    0.255243
    13  H    0.289303
    14  H    0.289223
    15  H    0.289303
    16  H    0.289301
    17  H    0.289301
    18  H    0.289218
    19  Bq   0.000000
    20  Bq   0.000000
    21  Bq   0.000000
    22  Bq   0.000000
    23  Bq   0.000000
    24  Bq   0.000000
    25  Bq   0.000000
    26  Bq   0.000000
    27  Bq   0.000000
    28  Bq   0.000000
    29  Bq   0.000000
    30  Bq   0.000000
    31  Bq   0.000000
    32  Bq   0.000000
    33  Bq   0.000000
    34  Bq   0.000000
    35  Bq   0.000000
    36  Bq   0.000000
    37  Bq   0.000000
    38  Bq   0.000000
    39  Bq   0.000000
    40  Bq   0.000000
    41  Bq   0.000000
    42  Bq   0.000000
    43  Bq   0.000000
    44  Bq   0.000000
    45  Bq   0.000000
    46  Bq   0.000000
    47  Bq   0.000000
    48  Bq   0.000000
    49  Bq   0.000000
    50  Bq   0.000000
    51  Bq   0.000000
    52  Bq   0.000000
    53  Bq   0.000000
    54  Bq   0.000000
    55  Bq   0.000000
    56  Bq   0.000000
    57  Bq   0.000000
    58  Bq   0.000000
 Sum of Mulliken charges =   0.00000

 Dipole moment (field-independent basis, Debye):
    X=              0.0000    Y=              0.0000    Z=             -3.0741  Tot=              3.0741
 Quadrupole moment (field-independent basis, Debye-Ang):
   XX=            -40.8726   YY=            -40.8730   ZZ=            -39.9851
   XY=              0.0000   XZ=              0.0000   YZ=              0.0000

 Normal termination of Gaussian 09 at Mon May  5 18:18:31 2014.
