 Gaussian 09, Revision A.02,
 Gaussian 09:  IA32W-G09RevA.02 11-Jun-2009

 ---------------------------------------------------------------
 # HF/STO-3G NMR=GIAO INTEGRAL=(GRID=ULTRAFINE) CPHF=(GRID=FINE)
 ---------------------------------------------------------------

 --------------------------
 --------------- # Center 1
 --------------------------
 Symbolic Z-matrix:
 Charge =  0 Multiplicity = 1

                          Input orientation:
 ---------------------------------------------------------------------
 Center     Atomic      Atomic             Coordinates (Angstroms)
 Number     Number       Type             X           Y           Z
 ---------------------------------------------------------------------
      1          6           0       -1.303160    0.495580    0.000000
      2          6           0       -1.080720   -0.880710    0.000000
      3          6           0        0.222340   -1.376230    0.000010
      4          6           0        1.303180   -0.495520    0.000000
      5          6           0        1.080760    0.880670    0.000000
      6          6           0       -0.222400    1.376220    0.000000
      7          1           0       -2.317830    0.881440   -0.000010
      8          1           0       -1.922320   -1.566410   -0.000010
      9          1           0        0.395440   -2.447920   -0.000010
     10          1           0        2.317800   -0.881510   -0.000010
     11          1           0        1.922270    1.566470    0.000000
     12          1           0       -0.395360    2.447930    0.000010
     13          0           0        5.000000    5.000000    5.000000
     14          0           0        4.000000    4.000000    4.000000
     15          0           0       -3.000000   -3.000000   -3.000000
 ---------------------------------------------------------------------

 SCF Done:  E(RHF) =  -227.890926526     A.U. after   10 cycles

  1  C    Isotropic =   122.6992   Anisotropy =   166.3610

  2  C    Isotropic =   122.7010   Anisotropy =   166.3571

  3  C    Isotropic =   122.6949   Anisotropy =   166.3630

  4  C    Isotropic =   122.6981   Anisotropy =   166.3625

  5  C    Isotropic =   122.7011   Anisotropy =   166.3573

  6  C    Isotropic =   122.6953   Anisotropy =   166.3634

  7  H    Isotropic =    25.6030   Anisotropy =     3.6186

  8  H    Isotropic =    25.6032   Anisotropy =     3.6190

  9  H    Isotropic =    25.6033   Anisotropy =     3.6192

 10  H    Isotropic =    25.6030   Anisotropy =     3.6186

 11  H    Isotropic =    25.6032   Anisotropy =     3.6191

 12  H    Isotropic =    25.6033   Anisotropy =     3.6192

 13  Bq   Isotropic =     0.0027   Anisotropy =     0.4614

 14  Bq   Isotropic =     0.0085   Anisotropy =     0.9057

 15  Bq   Isotropic =     0.0369   Anisotropy =     2.1639

 Alpha  occ. eigenvalues --  -11.02914 -11.02913 -11.02911 -11.02878 -11.02877
 Alpha  occ. eigenvalues --  -11.02863  -1.09036  -0.95484  -0.95480  -0.76677
 Alpha  occ. eigenvalues --   -0.76675  -0.66203  -0.59384  -0.55352  -0.53398
 Alpha  occ. eigenvalues --   -0.53393  -0.45652  -0.43275  -0.43272  -0.28007
 Alpha  occ. eigenvalues --   -0.28004
 Alpha virt. eigenvalues --    0.26892   0.26895   0.50416   0.57804   0.64795
 Alpha virt. eigenvalues --    0.64796   0.72044   0.73466   0.73474   0.88419
 Alpha virt. eigenvalues --    0.88424   0.89741   0.89747   1.08792   1.15115

 Mulliken atomic charges:
              1
     1  C   -0.062301
     2  C   -0.062299
     3  C   -0.062286
     4  C   -0.062300
     5  C   -0.062301
     6  C   -0.062285
     7  H    0.062305
     8  H    0.062294
     9  H    0.062287
    10  H    0.062304
    11  H    0.062295
    12  H    0.062286
    13  Bq   0.000000
    14  Bq   0.000000
    15  Bq   0.000000
 Sum of Mulliken atomic charges =   0.00000

 Dipole moment (field-independent basis, Debye):
    X=              0.0000    Y=              0.0000    Z=              0.0000  Tot=              0.0000
 Quadrupole moment (field-independent basis, Debye-Ang):
   XX=            -31.1959   YY=            -31.1974   ZZ=            -35.1014
   XY=              0.0000   XZ=              0.0000   YZ=              0.0000

 Normal termination of Gaussian 09 at Mon Dec 21 10:53:14 2020.
